 Gaussian 16, Revision A.03,
 Gaussian 16:  ES64L-G16RevA.03 25-Dec-2016

 ----------------------------------------------------------------------
 # wb97xd/6-31g(d,p) scrf=pcm geom=connectivity iop(3/107=0325000000,3/
 108=0325000000)
 ----------------------------------------------------------------------

 -------------------
 Title Card Required
 -------------------
 Symbolic Z-matrix:
 Charge = -1 Multiplicity = 2

                         Standard orientation:
 ---------------------------------------------------------------------
 Center     Atomic      Atomic             Coordinates (Angstroms)
 Number     Number       Type             X           Y           Z
 ---------------------------------------------------------------------
      1          6           0        0.000000   -0.000000    0.000000
      2          1           0        0.617765    0.617765    0.617765
      3          1           0       -0.617765   -0.617765    0.617765
      4          1           0       -0.617765    0.617765   -0.617765
      5          1           0        0.617765   -0.617765   -0.617765
 ---------------------------------------------------------------------

 SCF Done:  E(UwB97XD) =  -40.3992746163     A.U. after   10 cycles

 The electronic state is 2-A.
 Alpha  occ. eigenvalues --  -10.24311  -0.80320  -0.46555  -0.46555  -0.46555
 Alpha  occ. eigenvalues --    0.01301
 Alpha virt. eigenvalues --    0.28825   0.28825   0.28825   0.66234   0.66234
 Alpha virt. eigenvalues --    0.66234   1.05371   1.05371   1.05371   1.12486
 Alpha virt. eigenvalues --    1.25552   1.53748   1.53748   2.24572   2.24572

  Beta  occ. eigenvalues --  -10.23197  -0.78547  -0.45583  -0.45583  -0.45583
  Beta virt. eigenvalues --    0.22599   0.30146   0.30146   0.30146   0.66914
  Beta virt. eigenvalues --    0.66914   0.66914   1.05723   1.05723   1.05723
  Beta virt. eigenvalues --    1.13793   1.25951   1.54376   1.54376   2.25071

 Mulliken charges and spin densities:
               1          2
     1  C    0.037978  -0.250903
     2  H   -0.259495   0.312726
     3  H   -0.259495   0.312726
     4  H   -0.259495   0.312726
     5  H   -0.259495   0.312726
 Sum of Mulliken charges =  -1.00000   1.00000

 Dipole moment (field-independent basis, Debye):
    X=              0.0000    Y=             -0.0000    Z=             -0.0000  Tot=              0.0000
 Quadrupole moment (field-independent basis, Debye-Ang):
   XX=            -14.9563   YY=            -14.9563   ZZ=            -14.9563
   XY=             -0.0000   XZ=             -0.0000   YZ=              0.0000

 Normal termination of Gaussian 16 at Thu May 19 11:33:22 2022.
